SPECGRID
   10  10   15     1     F     /

COORD
0 0 0 0 0 1000
500 0 0 500 0 1000
1000 0 0 1000 0 1000
1500 0 0 1500 0 1000
2000 0 0 2000 0 1000
2500 0 0 2500 0 1000
3000 0 0 3000 0 1000
3500 0 0 3500 0 1000
4000 0 0 4000 0 1000
4500 0 0 4500 0 1000
5000 0 0 5000 0 1000
0 500 0 0 500 1000
500 500 0 500 500 1000
1000 500 0 1000 500 1000
1500 500 0 1500 500 1000
2000 500 0 2000 500 1000
2500 500 0 2500 500 1000
3000 500 0 3000 500 1000
3500 500 0 3500 500 1000
4000 500 0 4000 500 1000
4500 500 0 4500 500 1000
5000 500 0 5000 500 1000
0 1000 0 0 1000 1000
500 1000 0 500 1000 1000
1000 1000 0 1000 1000 1000
1500 1000 0 1500 1000 1000
2000 1000 0 2000 1000 1000
2500 1000 0 2500 1000 1000
3000 1000 0 3000 1000 1000
3500 1000 0 3500 1000 1000
4000 1000 0 4000 1000 1000
4500 1000 0 4500 1000 1000
5000 1000 0 5000 1000 1000
0 1500 0 0 1500 1000
500 1500 0 500 1500 1000
1000 1500 0 1000 1500 1000
1500 1500 0 1500 1500 1000
2000 1500 0 2000 1500 1000
2500 1500 0 2500 1500 1000
3000 1500 0 3000 1500 1000
3500 1500 0 3500 1500 1000
4000 1500 0 4000 1500 1000
4500 1500 0 4500 1500 1000
5000 1500 0 5000 1500 1000
0 2000 0 0 2000 1000
500 2000 0 500 2000 1000
1000 2000 0 1000 2000 1000
1500 2000 0 1500 2000 1000
2000 2000 0 2000 2000 1000
2500 2000 0 2500 2000 1000
3000 2000 0 3000 2000 1000
3500 2000 0 3500 2000 1000
4000 2000 0 4000 2000 1000
4500 2000 0 4500 2000 1000
5000 2000 0 5000 2000 1000
0 2500 0 0 2500 1000
500 2500 0 500 2500 1000
1000 2500 0 1000 2500 1000
1500 2500 0 1500 2500 1000
2000 2500 0 2000 2500 1000
2500 2500 0 2500 2500 1000
3000 2500 0 3000 2500 1000
3500 2500 0 3500 2500 1000
4000 2500 0 4000 2500 1000
4500 2500 0 4500 2500 1000
5000 2500 0 5000 2500 1000
0 3000 0 0 3000 1000
500 3000 0 500 3000 1000
1000 3000 0 1000 3000 1000
1500 3000 0 1500 3000 1000
2000 3000 0 2000 3000 1000
2500 3000 0 2500 3000 1000
3000 3000 0 3000 3000 1000
3500 3000 0 3500 3000 1000
4000 3000 0 4000 3000 1000
4500 3000 0 4500 3000 1000
5000 3000 0 5000 3000 1000
0 3500 0 0 3500 1000
500 3500 0 500 3500 1000
1000 3500 0 1000 3500 1000
1500 3500 0 1500 3500 1000
2000 3500 0 2000 3500 1000
2500 3500 0 2500 3500 1000
3000 3500 0 3000 3500 1000
3500 3500 0 3500 3500 1000
4000 3500 0 4000 3500 1000
4500 3500 0 4500 3500 1000
5000 3500 0 5000 3500 1000
0 4000 0 0 4000 1000
500 4000 0 500 4000 1000
1000 4000 0 1000 4000 1000
1500 4000 0 1500 4000 1000
2000 4000 0 2000 4000 1000
2500 4000 0 2500 4000 1000
3000 4000 0 3000 4000 1000
3500 4000 0 3500 4000 1000
4000 4000 0 4000 4000 1000
4500 4000 0 4500 4000 1000
5000 4000 0 5000 4000 1000
0 4500 0 0 4500 1000
500 4500 0 500 4500 1000
1000 4500 0 1000 4500 1000
1500 4500 0 1500 4500 1000
2000 4500 0 2000 4500 1000
2500 4500 0 2500 4500 1000
3000 4500 0 3000 4500 1000
3500 4500 0 3500 4500 1000
4000 4500 0 4000 4500 1000
4500 4500 0 4500 4500 1000
5000 4500 0 5000 4500 1000
0 5000 0 0 5000 1000
500 5000 0 500 5000 1000
1000 5000 0 1000 5000 1000
1500 5000 0 1500 5000 1000
2000 5000 0 2000 5000 1000
2500 5000 0 2500 5000 1000
3000 5000 0 3000 5000 1000
3500 5000 0 3500 5000 1000
4000 5000 0 4000 5000 1000
4500 5000 0 4500 5000 1000
5000 5000 0 5000 5000 1000
/

ZCORN
20*1700
40*1725
40*1750
40*1775
40*1800
40*1825
40*1850
40*1875
40*1900
40*1925
20*1950
20*1750
40*1775
40*1800
40*1825
40*1850
40*1875
40*1900
40*1925
40*1950
40*1975
20*2000
20*1750
40*1775
40*1800
40*1825
40*1850
40*1875
40*1900
40*1925
40*1950
40*1975
20*2000
20*1800
40*1825
40*1850
40*1875
40*1900
40*1925
40*1950
40*1975
40*2000
40*2025
20*2050
20*1800
40*1825
40*1850
40*1875
40*1900
40*1925
40*1950
40*1975
40*2000
40*2025
20*2050
20*1850
40*1875
40*1900
40*1925
40*1950
40*1975
40*2000
40*2025
40*2050
40*2075
20*2100
20*1850
40*1875
40*1900
40*1925
40*1950
40*1975
40*2000
40*2025
40*2050
40*2075
20*2100
20*1900
40*1925
40*1950
40*1975
40*2000
40*2025
40*2050
40*2075
40*2100
40*2125
20*2150
20*1900
40*1925
40*1950
40*1975
40*2000
40*2025
40*2050
40*2075
40*2100
40*2125
20*2150
20*1950
40*1975
40*2000
40*2025
40*2050
40*2075
40*2100
40*2125
40*2150
40*2175
20*2200
20*1950
40*1975
40*2000
40*2025
40*2050
40*2075
40*2100
40*2125
40*2150
40*2175
20*2200
20*2000
40*2025
40*2050
40*2075
40*2100
40*2125
40*2150
40*2175
40*2200
40*2225
20*2250
20*2000
40*2025
40*2050
40*2075
40*2100
40*2125
40*2150
40*2175
40*2200
40*2225
20*2250
20*2050
40*2075
40*2100
40*2125
40*2150
40*2175
40*2200
40*2225
40*2250
40*2275
20*2300
20*2050
40*2075
40*2100
40*2125
40*2150
40*2175
40*2200
40*2225
40*2250
40*2275
20*2300
20*2100
40*2125
40*2150
40*2175
40*2200
40*2225
40*2250
40*2275
40*2300
40*2325
20*2350
20*2100
40*2125
40*2150
40*2175
40*2200
40*2225
40*2250
40*2275
40*2300
40*2325
20*2350
20*2150
40*2175
40*2200
40*2225
40*2250
40*2275
40*2300
40*2325
40*2350
40*2375
20*2400
20*2150
40*2175
40*2200
40*2225
40*2250
40*2275
40*2300
40*2325
40*2350
40*2375
20*2400
20*2200
40*2225
40*2250
40*2275
40*2300
40*2325
40*2350
40*2375
40*2400
40*2425
20*2450
20*2200
40*2225
40*2250
40*2275
40*2300
40*2325
40*2350
40*2375
40*2400
40*2425
20*2450
20*2250
40*2275
40*2300
40*2325
40*2350
40*2375
40*2400
40*2425
40*2450
40*2475
20*2500
20*2250
40*2275
40*2300
40*2325
40*2350
40*2375
40*2400
40*2425
40*2450
40*2475
20*2500
20*2300
40*2325
40*2350
40*2375
40*2400
40*2425
40*2450
40*2475
40*2500
40*2525
20*2550
20*2300
40*2325
40*2350
40*2375
40*2400
40*2425
40*2450
40*2475
40*2500
40*2525
20*2550
20*2350
40*2375
40*2400
40*2425
40*2450
40*2475
40*2500
40*2525
40*2550
40*2575
20*2600
20*2350
40*2375
40*2400
40*2425
40*2450
40*2475
40*2500
40*2525
40*2550
40*2575
20*2600
20*2400
40*2425
40*2450
40*2475
40*2500
40*2525
40*2550
40*2575
40*2600
40*2625
20*2650
20*2400
40*2425
40*2450
40*2475
40*2500
40*2525
40*2550
40*2575
40*2600
40*2625
20*2650
20*2450
40*2475
40*2500
40*2525
40*2550
40*2575
40*2600
40*2625
40*2650
40*2675
20*2700
/

